 
             +---------------------------------------------------+
             |                                                   |
             |                   WANNIER90                       |
             |                                                   |
             +---------------------------------------------------+
             |                                                   |
             |        Welcome to the Maximally-Localized         |
             |        Generalized Wannier Functions code         |
             |            http://www.wannier.org                 |
             |                                                   |
             |  Wannier90 Authors:                               |
             |    Arash A. Mostofi   (Imperial College London)   |
             |    Jonathan R. Yates  (University of Oxford)      |
             |    Young-Su Lee       (KIST, S. Korea)            |
             |                                                   |
             |  Wannier90 Contributors:                          |
             |    Matthew Shelley    (Imperial College London)   |
             |    Nicolas Poilvert   (MIT)                       |
             |                                                   |
             |  Wannier77 Authors:                               |
             |    Nicola Marzari     (University of Oxford)      |
             |    Ivo Souza          (UC Berkeley)               |
             |    David Vanderbilt   (Rutgers University)        |
             |                                                   |
             |  Please cite                                      |
             |                                                   |
             |  [ref] "Wannier90: A Tool for Obtaining Maximally |
             |         Localised Wannier Functions"              |
             |        A. A. Mostofi, J. R. Yates, Y.-S. Lee,     |
             |        I. Souza, D. Vanderbilt and N. Marzari     |
             |        Comput. Phys. Commun. 178, 685 (2008)      |
             |                                                   |
             |  in any publications arising from the use of      |
             |  this code. For the method please cite            |
             |                                                   |
             |  [ref] "Maximally Localized Generalised Wannier   |
             |         Functions for Composite Energy Bands"     |
             |         N. Marzari and D. Vanderbilt              |
             |         Phys. Rev. B 56 12847 (1997)              |
             |                                                   |
             |  [ref] "Maximally Localized Wannier Functions     |
             |         for Entangled Energy Bands"               |
             |         I. Souza, N. Marzari and D. Vanderbilt    |
             |         Phys. Rev. B 65 035109 (2001)             |
             |                                                   |
             |                                                   |
             | Copyright (c) 1996-2010                           |
             |        A. A. Mostofi, J. R. Yates, Y.-S. Lee,     |
             |        I. Souza, D. Vanderbilt and N. Marzari     |
             |                                                   |
             |        Release: 1.2        24th Jan 2010          |
             |                                                   |
             | This program is free software; you can            |
             | redistribute it and/or modify it under the terms  |
             | of the GNU General Public License as published by |
             | the Free Software Foundation; either version 2 of |
             | the License, or (at your option) any later version|
             |                                                   |
             | This program is distributed in the hope that it   |
             | will be useful, but WITHOUT ANY WARRANTY; without |
             | even the implied warranty of MERCHANTABILITY or   |
             | FITNESS FOR A PARTICULAR PURPOSE. See the GNU     |
             | General Public License for more details.          |
             |                                                   |
             | You should have received a copy of the GNU General|
             | Public License along with this program; if not,   |
             | write to the Free Software Foundation, Inc.,      |
             | 675 Mass Ave, Cambridge, MA 02139, USA.           |
             |                                                   |
             +---------------------------------------------------+
             |    Execution started on 17Oct2019 at 11:01:47     |
             +---------------------------------------------------+
 
                                    ------
                                    SYSTEM
                                    ------
 
                              Lattice Vectors (Ang)
                    a_1    12.630000   0.000000   0.000000
                    a_2    -6.315000  10.937901   0.000000
                    a_3     0.000000   0.000000  25.260000
 
                   Unit Cell Volume:    3489.56014  (Ang^3)
 
                        Reciprocal-Space Vectors (Ang^-1)
                    b_1     0.497481   0.287221   0.000000
                    b_2     0.000000   0.574442   0.000000
                    b_3     0.000000   0.000000   0.248741
  
 *----------------------------------------------------------------------------*
 |   Site       Fractional Coordinate          Cartesian Coordinate (Ang)     |
 +----------------------------------------------------------------------------+
 | Nb   1   0.33333   0.66667   0.87332   |    0.00000   7.29193  22.06006    |
 | Nb   2   0.66667   0.33333   0.12668   |    6.31500   3.64597   3.19994    |
 | Ta   1   0.18109   0.15450   0.87332   |    1.31150   1.68991  22.06006    |
 | Ta   2   0.81891   0.84550   0.12668   |    5.00350   9.24800   3.19994    |
 | Ta   3   0.84550   0.02659   0.87332   |   10.51075   0.29084  22.06006    |
 | Ta   4   0.15450   0.97341   0.12668   |   -4.19575  10.64706   3.19994    |
 | Ta   5   0.97341   0.81891   0.87332   |    7.12275   8.95716  22.06006    |
 | Ta   6   0.02659   0.18109   0.12668   |   -0.80775   1.98074   3.19994    |
 | Ta   7   0.69378   0.51483   0.87332   |    5.51129   5.63116  22.06006    |
 | Ta   8   0.30622   0.48517   0.12668   |    0.80371   5.30674   3.19994    |
 | Ta   9   0.48517   0.17895   0.87332   |    4.99763   1.95734  22.06006    |
 | Ta  10   0.51483   0.82105   0.12668   |    1.31737   8.98056   3.19994    |
 | Ta  11   0.82105   0.30622   0.87332   |    8.43608   3.34940  22.06006    |
 | Ta  12   0.17895   0.69378   0.12668   |   -2.12108   7.58850   3.19994    |
 | Ta  13   0.11928   0.38337   0.87332   |   -0.91448   4.19326  22.06006    |
 | Ta  14   0.88072   0.61663   0.12668   |    7.22948   6.74464   3.19994    |
 | Ta  15   0.61663   0.73591   0.87332   |    3.14076   8.04931  22.06006    |
 | Ta  16   0.38337   0.26409   0.12668   |    3.17423   2.88859   3.19994    |
 | Ta  17   0.26409   0.88072   0.87332   |   -2.22629   9.63323  22.06006    |
 | Ta  18   0.73591   0.11928   0.12668   |    8.54129   1.30467   3.19994    |
 | Ta  19   0.40262   0.45313   0.87332   |    2.22357   4.95629  22.06006    |
 | Ta  20   0.59738   0.54687   0.12668   |    4.09143   5.98161   3.19994    |
 | Ta  21   0.54687   0.94949   0.87332   |    0.91094  10.38543  22.06006    |
 | Ta  22   0.45313   0.05051   0.12668   |    5.40406   0.55247   3.19994    |
 | Ta  23   0.05051   0.59738   0.87332   |   -3.13451   6.53408  22.06006    |
 | Ta  24   0.94949   0.40262   0.12668   |    9.44951   4.40382   3.19994    |
 | Se   1   0.89875   0.63753   0.93374   |    7.32521   6.97324  23.58627    |
 | Se   2   0.10125   0.36247   0.06626   |   -1.01021   3.96466   1.67373    |
 | Se   3   0.36247   0.26122   0.93374   |    2.92839   2.85720  23.58627    |
 | Se   4   0.63753   0.73878   0.06626   |    3.38661   8.08070   1.67373    |
 | Se   5   0.73878   0.10125   0.93374   |    8.69140   1.10746  23.58627    |
 | Se   6   0.26122   0.89875   0.06626   |   -2.37640   9.83044   1.67373    |
 | Se   7   0.76848   0.69543   0.81203   |    5.31426   7.60654  20.51188    |
 | Se   8   0.23152   0.30457   0.18797   |    1.00074   3.33136   4.74812    |
 | Se   9   0.30457   0.07305   0.81203   |    3.38541   0.79901  20.51188    |
 | Se  10   0.69543   0.92695   0.18797   |    2.92959  10.13889   4.74812    |
 | Se  11   0.92695   0.23152   0.81203   |   10.24533   2.53234  20.51188    |
 | Se  12   0.07305   0.76848   0.18797   |   -3.93033   8.40556   4.74812    |
 | Se  13   0.81846   0.86211   0.93486   |    4.89292   9.42967  23.61456    |
 | Se  14   0.18154   0.13789   0.06514   |    1.42208   1.50823   1.64544    |
 | Se  15   0.13789   0.95635   0.93486   |   -4.29780  10.46046  23.61456    |
 | Se  16   0.86211   0.04365   0.06514   |   10.61280   0.47744   1.64544    |
 | Se  17   0.04365   0.18154   0.93486   |   -0.59513   1.98567  23.61456    |
 | Se  18   0.95635   0.81846   0.06514   |    6.91013   8.95223   1.64544    |
 | Se  19   0.52977   0.37790   0.81126   |    4.30456   4.13343  20.49243    |
 | Se  20   0.47023   0.62210   0.18874   |    2.01044   6.80447   4.76757    |
 | Se  21   0.62210   0.15187   0.81126   |    6.89806   1.66114  20.49243    |
 | Se  22   0.37790   0.84813   0.18874   |   -0.58306   9.27676   4.76757    |
 | Se  23   0.84813   0.47023   0.81126   |    7.74238   5.14333  20.49243    |
 | Se  24   0.15187   0.52977   0.18874   |   -1.42738   5.79457   4.76757    |
 | Se  25   0.43416   0.01700   0.94225   |    5.37609   0.18594  23.80124    |
 | Se  26   0.56584   0.98300   0.05775   |    0.93891  10.75196   1.45877    |
 | Se  27   0.98300   0.41716   0.94225   |    9.78092   4.56285  23.80124    |
 | Se  28   0.01700   0.58284   0.05775   |   -3.46592   6.37505   1.45877    |
 | Se  29   0.58284   0.56584   0.94225   |    3.78799   6.18910  23.80124    |
 | Se  30   0.41716   0.43416   0.05775   |    2.52701   4.74880   1.45877    |
 | Se  31   0.68412   0.91620   0.80354   |    2.85463  10.02130  20.29742    |
 | Se  32   0.31588   0.08380   0.19646   |    3.46037   0.91660   4.96258    |
 | Se  33   0.08380   0.76792   0.80354   |   -3.79102   8.39943  20.29742    |
 | Se  34   0.91620   0.23208   0.19646   |   10.10602   2.53847   4.96258    |
 | Se  35   0.23208   0.31588   0.80354   |    0.93639   3.45506  20.29742    |
 | Se  36   0.76792   0.68412   0.19646   |    5.37861   7.48284   4.96258    |
 | Se  37   0.33333   0.66667   0.06543   |    0.00000   7.29193   1.65276    |
 | Se  38   0.66667   0.33333   0.93457   |    6.31500   3.64597  23.60724    |
 | Se  39   0.38344   0.84056   0.80164   |   -0.46529   9.19396  20.24943    |
 | Se  40   0.61656   0.15944   0.19836   |    6.78029   1.74394   5.01057    |
 | Se  41   0.15944   0.54288   0.80164   |   -1.41456   5.93797  20.24943    |
 | Se  42   0.84056   0.45712   0.19836   |    7.72956   4.99993   5.01057    |
 | Se  43   0.45712   0.61656   0.80164   |    1.87985   6.74387  20.24943    |
 | Se  44   0.54288   0.38344   0.19836   |    4.43515   4.19403   5.01057    |
 | Se  45   0.28317   0.49296   0.94419   |    0.46339   5.39195  23.85024    |
 | Se  46   0.71683   0.50704   0.05581   |    5.85161   5.54595   1.40976    |
 | Se  47   0.50704   0.79021   0.94419   |    1.41374   8.64324  23.85024    |
 | Se  48   0.49296   0.20979   0.05581   |    4.90126   2.29466   1.40976    |
 | Se  49   0.20979   0.71683   0.94419   |   -1.87713   7.84062  23.85024    |
 | Se  50   0.79021   0.28317   0.05581   |    8.19213   3.09729   1.40976    |
 | Se  51   0.00000   0.00000   0.81124   |    0.00000   0.00000  20.49192    |
 | Se  52   0.00000   0.00000   0.18876   |    0.00000   0.00000   4.76808    |
 *----------------------------------------------------------------------------*
  
                                ------------
                                K-POINT GRID
                                ------------
  
             Grid size =  6 x  6 x  1      Total points =   36
  
  
 *---------------------------------- MAIN ------------------------------------*
 |  Number of Wannier Functions               :                 4             |
 |  Number of input Bloch states              :               720             |
 |  Output verbosity (1=low, 5=high)          :                 1             |
 |  Timing Level (1=low, 5=high)              :                 1             |
 |  Optimisation (0=memory, 3=speed)          :                 3             |
 |  Length Unit                               :               Ang             |
 |  Post-processing setup (write *.nnkp)      :                 F             |
 |  Using Gamma-only branch of algorithms     :                 F             |
 *----------------------------------------------------------------------------*
 *------------------------------- WANNIERISE ---------------------------------*
 |  Total number of iterations                :                 0             |
 |  Number of CG steps before reset           :                 5             |
 |  Trial step length for line search         :             2.000             |
 |  Convergence tolerence                     :         0.100E-09             |
 |  Convergence window                        :                -1             |
 |  Iterations between writing output         :                 1             |
 |  Iterations between backing up to disk     :               100             |
 |  Write r^2_nm to file                      :                 F             |
 |  Write xyz WF centres to file              :                 F             |
 |  Use guiding centre to control phases      :                 F             |
 *----------------------------------------------------------------------------*
 *------------------------------- DISENTANGLE --------------------------------*
 |  Using band disentanglement                :                 T             |
 |  Total number of iterations                :               100             |
 |  Mixing ratio                              :             0.500             |
 |  Convergence tolerence                     :         1.000E-10             |
 |  Convergence window                        :                 3             |
 *----------------------------------------------------------------------------*
 *-------------------------------- PLOTTING ----------------------------------*
 |  Plotting interpolated bandstructure       :                 T             |
 |   Number of K-path sections                :                 3             |
 |   Divisions along first K-path section     :               100             |
 |   Output format                            :           gnuplot             |
 |   Output mode                              :               s-k             |
 *----------------------------------------------------------------------------*
 |   K-space path sections:                                                   |
 |    From:  G    0.000  0.000  0.000     To:  K    0.333  0.333  0.000       |
 |    From:  K    0.333  0.333  0.000     To:  M    0.000  0.500  0.000       |
 |    From:  M    0.000  0.500  0.000     To:  G    0.000  0.000  0.000       |
 *----------------------------------------------------------------------------*
 |  Plotting Hamiltonian in WF basis          :                 T             |
 *----------------------------------------------------------------------------*
 Time to read parameters        0.039 (sec)

 *---------------------------------- K-MESH ----------------------------------*
 +----------------------------------------------------------------------------+
 |                    Distance to Nearest-Neighbour Shells                    |
 |                    ------------------------------------                    |
 |          Shell             Distance (Ang^-1)          Multiplicity         |
 |          -----             -----------------          ------------         |
 |             1                   0.095740                      6            |
 |             2                   0.165827                      6            |
 |             3                   0.191481                      6            |
 |             4                   0.248741                      2            |
 |             5                   0.253305                     12            |
 |             6                   0.266530                     12            |
 |             7                   0.287221                      6            |
 |             8                   0.298949                     12            |
 |             9                   0.313905                     12            |
 |            10                   0.331654                      6            |
 |            11                   0.345196                     12            |
 |            12                   0.355014                     24            |
 +----------------------------------------------------------------------------+
 | The b-vectors are chosen automatically                                     |
 | SVD found small singular value, Rejecting this shell and trying the next   |
 | The following shells are used:   1,  4                                     |
 +----------------------------------------------------------------------------+
 |                        Shell   # Nearest-Neighbours                        |
 |                        -----   --------------------                        |
 |                          1               6                                 |
 |                          4               2                                 |
 +----------------------------------------------------------------------------+
 | Completeness relation is fully satisfied [Eq. (B1), PRB 56, 12847 (1997)]  |
 +----------------------------------------------------------------------------+
 |                  b_k Vectors (Ang^-1) and Weights (Ang^2)                  |
 |                  ----------------------------------------                  |
 |            No.         b_k(x)      b_k(y)      b_k(z)        w_b           |
 |            ---        --------------------------------     --------        |
 |             1         0.082914    0.047870    0.000000    36.365493        |
 |             2        -0.082914   -0.047870    0.000000    36.365493        |
 |             3         0.000000    0.095740    0.000000    36.365493        |
 |             4        -0.082914    0.047870    0.000000    36.365493        |
 |             5         0.000000   -0.095740    0.000000    36.365493        |
 |             6         0.082914   -0.047870    0.000000    36.365493        |
 |             7         0.000000    0.000000    0.248741     8.081221        |
 |             8         0.000000    0.000000   -0.248741     8.081221        |
 +----------------------------------------------------------------------------+
 |                           b_k Directions (Ang^-1)                          |
 |                           -----------------------                          |
 |            No.           x           y           z                         |
 |            ---        --------------------------------                     |
 |             1         0.082914    0.047870    0.000000                     |
 |             2         0.000000    0.095740    0.000000                     |
 |             3        -0.082914    0.047870    0.000000                     |
 |             4         0.000000    0.000000    0.248741                     |
 +----------------------------------------------------------------------------+
  
 *============================================================================*
 |                              MEMORY ESTIMATE                               |
 |         Maximum RAM allocated during each phase of the calculation         |
 *============================================================================*
 |                        Disentanglement         2863.53 Mb                  |
 |                            Wannierise:            2.05 Mb                  |
 *----------------------------------------------------------------------------*
  
 Starting a new Wannier90 calculation ...

 Time to get kmesh              0.019 (sec)

 Reading overlaps from wannier90.mmn    : File generated by VASP: TaSe2

 Reading projections from wannier90.amn : File generated by VASP: TaSe2

 Time to read overlaps         81.190 (sec)

 *------------------------------- DISENTANGLE --------------------------------*
 +----------------------------------------------------------------------------+
 |                              Energy  Windows                               |
 |                              ---------------                               |
 |                   Outer:   -1.00000  to    1.00000  (eV)                   |
 |                   Inner:   -0.36660  to   -0.10000  (eV)                   |
 +----------------------------------------------------------------------------+
   Number of target bands to extract:    4

                   Unitarised projection of Wannier functions                  
                   ------------------------------------------                  
   A_mn = <psi_m|g_n> --> S = A.A^+ --> U = S^-1/2.A
   In dis_project... done
   Using an inner window (linner = T)
   In dis_proj_froz... done

                   Extraction of optimally-connected subspace                  
                   ------------------------------------------                  
 +---------------------------------------------------------------------+<-- DIS
 |  Iter     Omega_I(i-1)      Omega_I(i)      Delta (frac.)    Time   |<-- DIS
 +---------------------------------------------------------------------+<-- DIS
       1     165.12090939     147.48523836       1.196E-01     82.34    <-- DIS
       2     148.90204898     143.49142802       3.771E-02     82.52    <-- DIS
       3     145.14917785     140.96090080       2.971E-02     82.65    <-- DIS
       4     142.33973440     139.26484649       2.208E-02     82.78    <-- DIS
       5     140.30227251     138.07981725       1.610E-02     82.91    <-- DIS
       6     138.83378932     137.22308300       1.174E-02     83.04    <-- DIS
       7     137.76820322     136.58591547       8.656E-03     83.17    <-- DIS
       8     136.98443272     136.10097941       6.491E-03     83.30    <-- DIS
       9     136.39830326     135.72504036       4.960E-03     83.43    <-- DIS
      10     135.95238603     135.42937049       3.862E-03     83.56    <-- DIS
      11     135.60761704     135.19424565       3.058E-03     83.69    <-- DIS
      12     135.33723423     135.00569951       2.456E-03     83.82    <-- DIS
      13     135.12264355     134.85355977       1.995E-03     83.95    <-- DIS
      14     134.95068265     134.73023046       1.636E-03     84.08    <-- DIS
      15     134.81183490     134.62991776       1.351E-03     84.21    <-- DIS
      16     134.69906818     134.54812469       1.122E-03     84.34    <-- DIS
      17     134.60707703     134.48131200       9.352E-04     84.47    <-- DIS
      18     134.53178313     134.42666398       7.820E-04     84.59    <-- DIS
      19     134.47000094     134.38192219       6.554E-04     84.72    <-- DIS
      20     134.41920941     134.34526404       5.504E-04     84.85    <-- DIS
      21     134.37739252     134.31521210       4.629E-04     84.98    <-- DIS
      22     134.34292513     134.29056483       3.899E-04     85.11    <-- DIS
      23     134.31448921     134.27034274       3.288E-04     85.24    <-- DIS
      24     134.29101096     134.25374601       2.776E-04     85.36    <-- DIS
      25     134.27161268     134.24012075       2.346E-04     85.49    <-- DIS
      26     134.25557517     134.22893191       1.985E-04     85.62    <-- DIS
      27     134.24230810     134.21974140       1.681E-04     85.75    <-- DIS
      28     134.23132627     134.21219035       1.426E-04     85.88    <-- DIS
      29     134.22223051     134.20598466       1.211E-04     86.01    <-- DIS
      30     134.21469216     134.20088329       1.029E-04     86.14    <-- DIS
      31     134.20844049     134.19668856       8.757E-05     86.27    <-- DIS
      32     134.20325235     134.19323840       7.462E-05     86.39    <-- DIS
      33     134.19894373     134.19039982       6.367E-05     86.52    <-- DIS
      34     134.19536287     134.18806375       5.439E-05     86.65    <-- DIS
      35     134.19238450     134.18614066       4.653E-05     86.78    <-- DIS
      36     134.18990522     134.18455707       3.986E-05     86.91    <-- DIS
      37     134.18783963     134.18325264       3.418E-05     87.04    <-- DIS
      38     134.18611716     134.18217783       2.936E-05     87.17    <-- DIS
      39     134.18467949     134.18129195       2.525E-05     87.29    <-- DIS
      40     134.18347835     134.18056155       2.174E-05     87.42    <-- DIS
      41     134.18247383     134.17995916       1.874E-05     87.55    <-- DIS
      42     134.18163289     134.17946219       1.618E-05     87.68    <-- DIS
      43     134.18092812     134.17905206       1.398E-05     87.81    <-- DIS
      44     134.18033683     134.17871349       1.210E-05     87.93    <-- DIS
      45     134.17984019     134.17843390       1.048E-05     88.06    <-- DIS
      46     134.17942257     134.17820294       9.090E-06     88.19    <-- DIS
      47     134.17907098     134.17801210       7.892E-06     88.32    <-- DIS
      48     134.17877462     134.17785436       6.859E-06     88.45    <-- DIS
      49     134.17852452     134.17772394       5.967E-06     88.57    <-- DIS
      50     134.17831318     134.17761607       5.195E-06     88.70    <-- DIS
      51     134.17813439     134.17752683       4.528E-06     88.83    <-- DIS
      52     134.17798292     134.17745297       3.950E-06     88.96    <-- DIS
      53     134.17785445     134.17739183       3.448E-06     89.09    <-- DIS
      54     134.17774535     134.17734120       3.012E-06     89.21    <-- DIS
      55     134.17765257     134.17729927       2.633E-06     89.34    <-- DIS
      56     134.17757357     134.17726452       2.303E-06     89.47    <-- DIS
      57     134.17750621     134.17723572       2.016E-06     89.60    <-- DIS
      58     134.17744872     134.17721185       1.765E-06     89.73    <-- DIS
      59     134.17739958     134.17719205       1.547E-06     89.85    <-- DIS
      60     134.17735753     134.17717563       1.356E-06     89.98    <-- DIS
      61     134.17732150     134.17716200       1.189E-06     90.11    <-- DIS
      62     134.17729059     134.17715069       1.043E-06     90.24    <-- DIS
      63     134.17726404     134.17714130       9.147E-07     90.37    <-- DIS
      64     134.17724121     134.17713351       8.027E-07     90.50    <-- DIS
      65     134.17722157     134.17712703       7.045E-07     90.63    <-- DIS
      66     134.17720464     134.17712165       6.185E-07     90.75    <-- DIS
      67     134.17719003     134.17711718       5.429E-07     90.88    <-- DIS
      68     134.17717742     134.17711347       4.766E-07     91.01    <-- DIS
      69     134.17716653     134.17711038       4.184E-07     91.14    <-- DIS
      70     134.17715710     134.17710781       3.673E-07     91.26    <-- DIS
      71     134.17714893     134.17710567       3.224E-07     91.39    <-- DIS
      72     134.17714186     134.17710390       2.830E-07     91.52    <-- DIS
      73     134.17713573     134.17710242       2.483E-07     91.65    <-- DIS
      74     134.17713041     134.17710119       2.178E-07     91.77    <-- DIS
      75     134.17712578     134.17710016       1.910E-07     91.90    <-- DIS
      76     134.17712177     134.17709931       1.674E-07     92.03    <-- DIS
      77     134.17711828     134.17709860       1.467E-07     92.16    <-- DIS
      78     134.17711524     134.17709800       1.285E-07     92.28    <-- DIS
      79     134.17711260     134.17709751       1.124E-07     92.41    <-- DIS
      80     134.17711030     134.17709710       9.837E-08     92.54    <-- DIS
      81     134.17710829     134.17709676       8.600E-08     92.67    <-- DIS
      82     134.17710655     134.17709647       7.513E-08     92.80    <-- DIS
      83     134.17710503     134.17709623       6.558E-08     92.92    <-- DIS
      84     134.17710371     134.17709603       5.719E-08     93.05    <-- DIS
      85     134.17710255     134.17709587       4.983E-08     93.18    <-- DIS
      86     134.17710155     134.17709573       4.337E-08     93.31    <-- DIS
      87     134.17710067     134.17709561       3.770E-08     93.43    <-- DIS
      88     134.17709991     134.17709552       3.273E-08     93.56    <-- DIS
      89     134.17709924     134.17709544       2.838E-08     93.69    <-- DIS
      90     134.17709866     134.17709537       2.456E-08     93.82    <-- DIS
      91     134.17709816     134.17709531       2.122E-08     93.94    <-- DIS
      92     134.17709772     134.17709527       1.831E-08     94.07    <-- DIS
      93     134.17709734     134.17709523       1.576E-08     94.20    <-- DIS
      94     134.17709701     134.17709519       1.353E-08     94.33    <-- DIS
      95     134.17709672     134.17709517       1.159E-08     94.46    <-- DIS
      96     134.17709647     134.17709514       9.894E-09     94.58    <-- DIS
      97     134.17709625     134.17709513       8.421E-09     94.71    <-- DIS
      98     134.17709607     134.17709511       7.140E-09     94.84    <-- DIS
      99     134.17709590     134.17709510       6.029E-09     94.97    <-- DIS
     100     134.17709576     134.17709508       5.065E-09     95.09    <-- DIS

     <<< Warning: Maximum number of disentanglement iterations reached >>>
          <<< Disentanglement convergence criteria not satisfied >>>

        Final Omega_I   134.17709508 (Ang^2)

 +----------------------------------------------------------------------------+

 Time to disentangle bands     14.070 (sec)

 Writing checkpoint file wannier90.chk... done

 
 *------------------------------- WANNIERISE ---------------------------------*
 +--------------------------------------------------------------------+<-- CONV
 | Iter  Delta Spread     RMS Gradient      Spread (Ang^2)      Time  |<-- CONV
 +--------------------------------------------------------------------+<-- CONV
 
 ------------------------------------------------------------------------------
 Initial State
  WF centre and spread    1  (  0.001890,  7.290517, -2.210828 )    33.97670300
  WF centre and spread    2  (  6.313199,  3.647617,  2.207901 )    34.00963381
  WF centre and spread    3  (  0.001890,  7.290517, -2.210828 )    33.97670371
  WF centre and spread    4  (  6.313199,  3.647617,  2.207901 )    34.00962881
  Sum of centres and spreads ( 12.630179, 21.876267, -0.005853 )   135.97266933
 
      0     0.136E+03     0.0000000000      135.9726699302      95.32  <-- CONV
        O_D=      0.9682377 O_OD=      0.8273371 O_TOT=    135.9726699 <-- SPRD
 ------------------------------------------------------------------------------
 Final State
  WF centre and spread    1  (  0.001890,  7.290517, -2.210828 )    33.97670300
  WF centre and spread    2  (  6.313199,  3.647617,  2.207901 )    34.00963381
  WF centre and spread    3  (  0.001890,  7.290517, -2.210828 )    33.97670371
  WF centre and spread    4  (  6.313199,  3.647617,  2.207901 )    34.00962881
  Sum of centres and spreads ( 12.630179, 21.876267, -0.005853 )   135.97266933
 
         Spreads (Ang^2)       Omega I      =   134.177095085
        ================       Omega D      =     0.968237736
                               Omega OD     =     0.827337109
    Final Spread (Ang^2)       Omega Total  =   135.972669930
 ------------------------------------------------------------------------------
 Time for wannierise            0.000 (sec)

 Writing checkpoint file wannier90.chk... done

 *---------------------------------------------------------------------------*
 |                               PLOTTING                                    |
 *---------------------------------------------------------------------------*
 
 
 Calculating interpolated band-structure
 
 Time to calculate interpolated band structure       0.003 (sec)
 
 Time for plotting              0.005 (sec)
 Total Execution Time          95.328 (sec)

 *===========================================================================*
 |                             TIMING INFORMATION                            |
 *===========================================================================*
 |    Tag                                                Ncalls      Time (s)|
 |---------------------------------------------------------------------------|
 |kmesh: get                                        :         1         0.019|
 |overlap: read                                     :         1        81.190|
 |dis: main                                         :         1        14.070|
 |wann: main                                        :         1         0.000|
 |plot: main                                        :         1         0.005|
 *---------------------------------------------------------------------------*
 
 All done: wannier90 exiting
